2
Properties=species:S:1:pos:R:3:forces:R:3 energy=-31.492836653673997 free_energy=-31.492836653673997 dipole="0.0 0.0 0.0" pbc="F F F"
H        0.00000000       0.00000000      -0.02689994       0.00000000       0.00000000      -0.00226257
H        0.00000000       0.00000000       0.72689994      -0.00000000      -0.00000000       0.00226257
