3
Lattice="10.585882276618294 0.0 0.0 0.0 11.513900654527323 0.0 0.0 0.0 10.0" Properties=species:S:1:pos:R:3:momenta:R:3:forces:R:3:energies:R:1 energy=2.773940270203404 stress="-0.004150060019138576 0.0 0.0 0.0 -0.007204541166085 0.0 0.0 0.0 0.0" free_energy=2.773940270203404 pbc="F F F"
O        5.00000000       5.75695033       5.00000000       0.00000000       0.00000000       0.00000000      -8.63363243       0.00000000       0.00000000      -0.02890588
H        5.58588228       6.51390065       5.00000000       0.00000000       0.00000000       0.00000000       4.31681622       5.80040727       0.00000000       1.40142308
H        5.58588228       5.00000000       5.00000000       0.00000000       0.00000000       0.00000000       4.31681622      -5.80040727       0.00000000       1.40142308
3
Lattice="10.585882276618294 0.0 0.0 0.0 11.513900654527323 0.0 0.0 0.0 10.0" Properties=species:S:1:pos:R:3:momenta:R:3:forces:R:3:energies:R:1 energy=2.343359154926962 stress="-0.0029158920108470865 -7.80963744430258e-06 1.23310342217989e-07 -7.80963744430258e-06 -0.005008977562652846 2.943272758258835e-06 1.23310342217989e-07 2.943272758258835e-06 -1.7342994258156343e-09" free_energy=2.343359154926962 pbc="F F F"
O        4.99771763       5.75707468       5.00008447      -0.71443342       0.02208723      -0.00447010      -5.83820398      -0.00839386       0.00024264       0.13476185
H        5.60703638       6.54094317       4.99959911       0.36874472       0.46080446      -0.00549847       2.92777363       3.89498920      -0.00240765       1.10578183
H        5.60590319       4.97180569       5.00052108       0.34568870      -0.48289169       0.00996857       2.91043036      -3.88659534       0.00216502       1.10281548
3
Lattice="10.585882276618294 0.0 0.0 0.0 11.513900654527323 0.0 0.0 0.0 10.0" Properties=species:S:1:pos:R:3:momenta:R:3:forces:R:3:energies:R:1 energy=1.893707974886837 stress="-0.0004890543616515726 -2.783796816877383e-05 4.477827392989371e-07 -2.783796816877383e-05 -0.0008155517889703858 1.4053193054079857e-06 4.477827392989371e-07 1.4053193054079857e-06 -2.749071725720719e-09" free_energy=1.893707974886837 pbc="F F F"
O        4.99143717       5.75737722       5.00013619      -1.04327212       0.06068671       0.02361690      -0.89782496      -0.04809423       0.00081695       0.59229670
H        5.65698549       6.60373379       4.99815629       0.53087539       0.66833123      -0.02381559       0.47051657       0.60924237      -0.00141819       0.65565954
H        5.65356177       4.90484412       5.00103904       0.51239672      -0.72901794       0.00019869       0.42730839      -0.56114814       0.00060124       0.64575173
3
Lattice="10.585882276618294 0.0 0.0 0.0 11.513900654527323 0.0 0.0 0.0 10.0" Properties=species:S:1:pos:R:3:momenta:R:3:forces:R:3:energies:R:1 energy=2.0365467107664665 stress="0.0014651114429919542 -3.117643689965318e-05 -4.6179068122593064e-06 -3.117643689965318e-05 0.002419693560207757 -7.311858262775359e-06 -4.6179068122593064e-06 -7.311858262775359e-06 3.7254402341480777e-08" free_energy=2.0365467107664665 pbc="F F F"
O        4.98479165       5.75751809       5.00049585      -0.97274517       0.06021497       0.02989996       2.46796272      -0.06368164      -0.00774461       1.13656083
H        5.71091232       6.67230501       4.99535761       0.48958552       0.62874630      -0.03475825      -1.22149206      -1.56929264       0.00873682       0.45299174
H        5.70586556       4.83057746       5.00101554       0.48315965      -0.68896128       0.00485829      -1.24647066       1.63297428      -0.00099221       0.44699414
3
Lattice="10.585882276618294 0.0 0.0 0.0 11.513900654527323 0.0 0.0 0.0 10.0" Properties=species:S:1:pos:R:3:momenta:R:3:forces:R:3:energies:R:1 energy=2.433706880841922 stress="0.0025647711848284334 -2.3801934404848606e-05 -1.1732099954397993e-05 -2.3801934404848606e-05 0.004181320278395628 -2.0237666931286157e-05 -1.1732099954397993e-05 -2.0237666931286157e-05 1.526791383649079e-07" free_energy=2.433706880841922 pbc="F F F"
O        4.97942882       5.75812579       5.00052304      -0.65415045       0.06300322       0.02047437       4.05684194      -0.05836889      -0.01845649       1.55760008
H        5.75304774       6.72525336       4.99224298       0.33618617       0.41305841      -0.02826963      -2.03391089      -2.57891435       0.02194543       0.43537556
H        5.74692616       4.77140790       5.00177928       0.31796428      -0.47606163       0.00779526      -2.02293105       2.63728324      -0.00348895       0.44073124
3
Lattice="10.585882276618294 0.0 0.0 0.0 11.513900654527323 0.0 0.0 0.0 10.0" Properties=species:S:1:pos:R:3:momenta:R:3:forces:R:3:energies:R:1 energy=2.7140556932389392 stress="0.0030219161190982516 -1.0889588184124428e-05 -1.824442262994792e-05 -1.0889588184124428e-05 0.004903462215536952 -3.138897363185163e-05 -1.824442262994792e-05 -3.138897363185163e-05 3.1192557893549327e-07" free_energy=2.7140556932389392 pbc="F F F"
O        4.97653228       5.75842233       5.00063964      -0.22594511       0.06595618       0.02509306       4.62908120      -0.04994610      -0.02773408       1.77593442
H        5.77662606       6.75270755       4.98941250       0.12785881       0.13383043      -0.03612596      -2.33822001      -2.94086176       0.03303593       0.46133519
H        5.76770245       4.73778853       5.00239198       0.09808630      -0.19978661       0.01103291      -2.29086119       2.99080785      -0.00530185       0.47678609
3
Lattice="10.585882276618294 0.0 0.0 0.0 11.513900654527323 0.0 0.0 0.0 10.0" Properties=species:S:1:pos:R:3:momenta:R:3:forces:R:3:energies:R:1 energy=2.724254641128998 stress="0.0030204754162357858 -9.843709615096727e-06 -2.6389843037338083e-05 -9.843709615096727e-06 0.004939452752028659 -4.053527988280496e-05 -2.6389843037338083e-05 -4.053527988280496e-05 5.646328515615676e-07" free_energy=2.724254641128998 pbc="F F F"
O        4.97671519       5.75850197       5.00088311       0.26508651       0.03457247       0.05015182       4.63348433      -0.05948750      -0.04011764       1.78299205
H        5.77709830       6.75292457       4.98569070      -0.11822053      -0.13480052      -0.03866222      -2.34658307      -2.95014986       0.04482668       0.46172968
H        5.76526471       4.73288130       5.00240703      -0.14686597       0.10022805      -0.01148960      -2.28690126       3.00963736      -0.00470904       0.47953292
3
Lattice="10.585882276618294 0.0 0.0 0.0 11.513900654527323 0.0 0.0 0.0 10.0" Properties=species:S:1:pos:R:3:momenta:R:3:forces:R:3:energies:R:1 energy=2.4559187095234343 stress="0.0025625087564733755 -3.1978995118297997e-05 -2.8626383895630176e-05 -3.1978995118297997e-05 0.004285434239015004 -4.292366003933052e-05 -2.8626383895630176e-05 -4.292366003933052e-05 7.569498644034935e-07" free_energy=2.4559187095234343 pbc="F F F"
O        4.97979811       5.75863540       5.00108037       0.73790800       0.06599870       0.00849260       4.07537850      -0.10377428      -0.04499254       1.57521324
H        5.75375917       6.72469417       4.98257906      -0.35031865      -0.42737146      -0.01561326      -2.05545446      -2.60071966       0.04948956       0.43544345
H        5.73847361       4.75628715       5.00263360      -0.38758935       0.36137276       0.00712066      -2.01992404       2.70449395      -0.00449703       0.44526202
3
Lattice="10.585882276618294 0.0 0.0 0.0 11.513900654527323 0.0 0.0 0.0 10.0" Properties=species:S:1:pos:R:3:momenta:R:3:forces:R:3:energies:R:1 energy=2.057734532830433 stress="0.0014908372564815355 -0.00010926857270956132 -1.700700070465297e-05 -0.00010926857270956132 0.002596445672742502 -2.7923799165857893e-05 -1.700700070465297e-05 -2.7923799165857893e-05 5.22744178811141e-07" free_energy=2.057734532830433 pbc="F F F"
O        4.98548481       5.75907682       5.00127277       1.06354295       0.09550550      -0.01956176       2.54268812      -0.23197362      -0.02849217       1.16223466
H        5.71007971       6.66959954       4.98214721      -0.50773138      -0.65750560       0.01043734      -1.23082481      -1.57687444       0.03282803       0.45770978
H        5.69078283       4.80327928       5.00341572      -0.55581157       0.56200010       0.00912442      -1.31186331       1.80884806      -0.00433586       0.43779009
3
Lattice="10.585882276618294 0.0 0.0 0.0 11.513900654527323 0.0 0.0 0.0 10.0" Properties=species:S:1:pos:R:3:momenta:R:3:forces:R:3:energies:R:1 energy=1.8919383267659873 stress="-0.00036453472267556464 -0.00028510999230971955 7.574666392494661e-06 -0.00028510999230971955 -0.0006112703373233322 1.0628558886450686e-05 7.574666392494661e-06 1.0628558886450686e-05 -2.143890589208107e-07" free_energy=1.8919383267659873 pbc="F F F"
O        4.99265806       5.75970795       5.00113020       1.15163550       0.06618625      -0.03375238      -0.67577653      -0.51850383       0.01392038       0.61925701
H        5.65461296       6.59812127       4.98349013      -0.54250768      -0.69714195       0.01986369       0.54929158       0.69767341      -0.01466146       0.68699296
H        5.63072730       4.86610242       5.00474462      -0.60912782       0.63095571       0.01388869       0.12648494      -0.17916958       0.00074108       0.58568836
3
Lattice="10.585882276618294 0.0 0.0 0.0 11.513900654527323 0.0 0.0 0.0 10.0" Properties=species:S:1:pos:R:3:momenta:R:3:forces:R:3:energies:R:1 energy=2.3126097952181186 stress="-0.002627075587513819 -0.000475077820840324 3.1324033944871226e-05 -0.000475077820840324 -0.004940723126735897 6.611178774665437e-05 3.1324033944871226e-05 6.611178774665437e-05 -1.1261202998067146e-06" free_energy=2.3126097952181186 pbc="F F F"
O        4.99955231       5.75985421       5.00095286       0.85777168      -0.00184929      -0.02623346      -5.41611072      -0.77993044       0.06209505       0.15140180
H        5.60400809       6.53414985       4.98546587      -0.36809196      -0.45523480       0.01766066       3.16785400       4.14992623      -0.08230988       1.18136179
H        5.57207506       4.92640494       5.00579274      -0.48967972       0.45708409       0.00857280       2.24825672      -3.36999579       0.02021483       0.97984621
3
Lattice="10.585882276618294 0.0 0.0 0.0 11.513900654527323 0.0 0.0 0.0 10.0" Properties=species:S:1:pos:R:3:momenta:R:3:forces:R:3:energies:R:1 energy=2.7880377955268014 stress="-0.0038082940831193437 -0.00043404344531820484 4.134693042078862e-05 -0.00043404344531820484 -0.007594099807269878 9.570702019250142e-05 4.134693042078862e-05 9.570702019250142e-05 -1.5463776982451607e-06" free_energy=2.7880377955268014 pbc="F F F"
O        5.00340618       5.75967652       5.00103376       0.20928449      -0.03294414       0.00450828      -8.31933968      -0.43512358       0.08413577      -0.03477865
H        5.58261778       6.50886901       4.98650552      -0.00334351       0.03624979       0.00185764       4.65048986       6.17924512      -0.11862498       1.49274675
H        5.53439381       4.95422541       5.00571311      -0.20594098      -0.00330565      -0.00636592       3.66884982      -5.74412154       0.03448920       1.33006969
3
Lattice="10.585882276618294 0.0 0.0 0.0 11.513900654527323 0.0 0.0 0.0 10.0" Properties=species:S:1:pos:R:3:momenta:R:3:forces:R:3:energies:R:1 energy=2.3982137672910393 stress="-0.0027207440040087536 -0.00013763296606609949 2.6825352668035886e-05 -0.00013763296606609949 -0.005668952179301826 6.480045377476851e-05 2.6825352668035886e-05 6.480045377476851e-05 -9.753797981230794e-07" free_energy=2.3982137672910393 pbc="F F F"
O        5.00238921       5.75939960       5.00118247      -0.45280995      -0.02107717      -0.01423593      -5.84435343       0.25378868       0.05146629       0.10525482
H        5.60376690       6.54162652       4.98682906       0.36477299       0.53372662       0.00632108       3.11897664       4.14514654      -0.07543082       1.14762620
H        5.53093643       4.92575567       5.00561193       0.08803696      -0.51264946       0.00791485       2.72537679      -4.39893522       0.02396453       1.14533275
3
Lattice="10.585882276618294 0.0 0.0 0.0 11.513900654527323 0.0 0.0 0.0 10.0" Properties=species:S:1:pos:R:3:momenta:R:3:forces:R:3:energies:R:1 energy=1.9108394793705723 stress="-0.0005833558528107982 0.00012546700397344016 3.4385074689116876e-06 0.00012546700397344016 -0.001282504356869166 1.251092958471994e-05 3.4385074689116876e-06 1.251092958471994e-05 -1.601104471820802e-07" free_energy=1.9108394793705723 pbc="F F F"
O        4.99789408       5.75922822       5.00124257      -0.79517774       0.00642426      -0.00435349      -1.18616383       0.40032946       0.00545914       0.54073491
H        5.65395217       6.61367947       4.98686866       0.53592350       0.77084663      -0.00235888       0.52296223       0.68292675      -0.01147705       0.65310148
H        5.55267033       4.85487133       5.00625763       0.25925424      -0.77727089       0.00671236       0.66320160      -1.08325621       0.00601791       0.71700309
3
Lattice="10.585882276618294 0.0 0.0 0.0 11.513900654527323 0.0 0.0 0.0 10.0" Properties=species:S:1:pos:R:3:momenta:R:3:forces:R:3:energies:R:1 energy=2.0068798218826758 stress="0.0011054825497844743 0.00023899113506613945 -9.124004081608287e-06 0.00023899113506613945 0.0023563372727134825 -2.5881256180805568e-05 -9.124004081608287e-06 -2.5881256180805568e-05 3.233348531752476e-07" free_energy=2.0068798218826758 pbc="F F F"
O        4.99248884       5.75921348       5.00089814      -0.78532287       0.01637390      -0.01864417       2.02792298       0.15414709      -0.01378832       1.08133938
H        5.70924160       6.69232467       4.98690983       0.51855558       0.73236641      -0.00082934      -1.19306706      -1.57679590       0.02352890       0.44626146
H        5.58214874       4.77464794       5.00756782       0.26676729      -0.74874031       0.01947351      -0.83485592       1.42264881      -0.00974058       0.47927898
3
Lattice="10.585882276618294 0.0 0.0 0.0 11.513900654527323 0.0 0.0 0.0 10.0" Properties=species:S:1:pos:R:3:momenta:R:3:forces:R:3:energies:R:1 energy=2.3955439654411093 stress="0.002041797972601652 0.000273936463760264 -1.2976226860903094e-05 0.000273936463760264 0.004457935544192712 -4.929243108176213e-05 -1.2976226860903094e-05 -4.929243108176213e-05 5.939018136822304e-07" free_energy=2.3955439654411093 pbc="F F F"
O        4.98819928       5.75924691       5.00099137      -0.53906249       0.01515011      -0.01170964       3.55306889      -0.09212102      -0.01646297       1.51599330
H        5.75470625       6.75594949       4.98650614       0.37396759       0.52712951      -0.00680470      -1.98612090      -2.60719249       0.03779777       0.44686686
H        5.60485396       4.70899832       5.00925799       0.16509490      -0.54227962       0.01851435      -1.56694799       2.69931350      -0.02133480       0.43268381
3
Lattice="10.585882276618294 0.0 0.0 0.0 11.513900654527323 0.0 0.0 0.0 10.0" Properties=species:S:1:pos:R:3:momenta:R:3:forces:R:3:energies:R:1 energy=2.6953947818580075 stress="0.0024121854431653784 0.00029208048342038777 -1.1805338283115348e-05 0.00029208048342038777 0.005389107192371097 -6.347049135681114e-05 -1.1805338283115348e-05 -6.347049135681114e-05 7.767292913137339e-07" free_energy=2.6953947818580075 pbc="F F F"
O        4.98633849       5.75922367       5.00072514      -0.12686464      -0.04532131      -0.01146795       4.08816212      -0.23283472      -0.01157304       1.75258103
H        5.78091328       6.79543016       4.98594347       0.14611444       0.26219107      -0.00714502      -2.26204686      -2.97202302       0.04233735       0.49606264
H        5.61210507       4.67060349       5.01115599      -0.01924980      -0.21686976       0.01861297      -1.82611526       3.20485774      -0.03076431       0.44675112
3
Lattice="10.585882276618294 0.0 0.0 0.0 11.513900654527323 0.0 0.0 0.0 10.0" Properties=species:S:1:pos:R:3:momenta:R:3:forces:R:3:energies:R:1 energy=2.741068153067042 stress="0.0024143315900005003 0.0003262949781940083 -8.981980499931956e-06 0.0003262949781940083 0.00552443175809341 -6.983781244056906e-05 -8.981980499931956e-06 -6.983781244056906e-05 8.927136186277238e-07" free_energy=2.741068153067042 pbc="F F F"
O        4.98657770       5.75856803       5.00060023       0.24214533      -0.09253515      -0.02460041       4.10198253      -0.25206067      -0.00516238       1.78070521
H        5.78548575       6.80779832       4.98584178      -0.05049253      -0.01447632       0.00677869      -2.27890880      -3.01393783       0.04236161       0.51396799
H        5.60205723       4.66514207       5.01304378      -0.19165281       0.10701147       0.01782172      -1.82307373       3.26599850      -0.03719922       0.44639494
3
Lattice="10.585882276618294 0.0 0.0 0.0 11.513900654527323 0.0 0.0 0.0 10.0" Properties=species:S:1:pos:R:3:momenta:R:3:forces:R:3:energies:R:1 energy=2.519843051227474 stress="0.0020936883750305594 0.00040849454202172516 -8.01319917592827e-06 0.00040849454202172516 0.004911064161985682 -6.257349803983215e-05 -8.01319917592827e-06 -6.257349803983215e-05 8.010990284245883e-07" free_energy=2.519843051227474 pbc="F F F"
O        4.98933017       5.75778245       5.00039738       0.65992012      -0.12515929       0.01929102       3.66646465      -0.08197587      -0.00396407       1.60356503
H        5.76852954       6.79257714       4.98626763      -0.28631450      -0.28829318      -0.00662430      -2.09769931      -2.80729437       0.03831051       0.48293561
H        5.57409695       4.69146915       5.01306536      -0.37360562       0.41345248      -0.01266671      -1.56876535       2.88927024      -0.03434644       0.43334241
3
Lattice="10.585882276618294 0.0 0.0 0.0 11.513900654527323 0.0 0.0 0.0 10.0" Properties=species:S:1:pos:R:3:momenta:R:3:forces:R:3:energies:R:1 energy=2.150550814817592 stress="0.0013789873607179721 0.0005685507208506856 -1.3106729662585028e-05 0.0005685507208506856 0.0032372926075702408 -4.1975575730948346e-05 -1.3106729662585028e-05 -4.1975575730948346e-05 5.699768496334541e-07" free_energy=2.150550814817592 pbc="F F F"
O        4.99422520       5.75690157       5.00075657       0.90992521      -0.10426438       0.04507257       2.52447542       0.46831990      -0.01702160       1.23055462
H        5.73189284       6.75119314       4.98534002      -0.44495597      -0.53418387      -0.01246767      -1.61853674      -2.20339089       0.03409122       0.43625853
H        5.53160567       4.74544178       5.01066577      -0.46496925       0.63844825      -0.03260490      -0.90593868       1.73507099      -0.01706962       0.48373767
3
Lattice="10.585882276618294 0.0 0.0 0.0 11.513900654527323 0.0 0.0 0.0 10.0" Properties=species:S:1:pos:R:3:momenta:R:3:forces:R:3:energies:R:1 energy=1.9295540775929827 stress="0.0001650550159113316 0.0007825381185019852 -1.021445087587239e-05 0.0007825381185019852 1.360509643440868e-05 -7.489732877088448e-06 -1.021445087587239e-05 -7.489732877088448e-06 1.7874407698900325e-07" free_energy=1.9295540775929827 pbc="F F F"
O        5.00051622       5.75627538       5.00105082       1.04721419      -0.03039762       0.05185493       0.17165281       1.63827002      -0.01975341       0.71938988
H        5.68082482       6.68902869       4.98434043      -0.55692403      -0.67661384      -0.01445071      -0.59562410      -0.83084574       0.01478756       0.46903944
H        5.48175453       4.81700272       5.00693979      -0.49029015       0.70701147      -0.03740421       0.42397129      -0.80742429       0.00496586       0.74112475
3
Lattice="10.585882276618294 0.0 0.0 0.0 11.513900654527323 0.0 0.0 0.0 10.0" Properties=species:S:1:pos:R:3:momenta:R:3:forces:R:3:energies:R:1 energy=2.2084706178129334 stress="-0.0014098837500726529 0.0008222099422049587 1.7456820978246496e-05 0.0008222099422049587 -0.004581021488579208 3.0475083439341796e-05 1.7456820978246496e-05 3.0475083439341796e-05 -6.191341506193164e-07" free_energy=2.2084706178129334 pbc="F F F"
O        5.00715001       5.75622712       5.00150244       0.89085007       0.16675482       0.09768655      -3.49355467       3.07356919       0.03298508       0.23724050
H        5.62376083       6.61992780       4.98174211      -0.52678006      -0.62539202      -0.04339983       1.17920130       1.66979973      -0.03796857       0.71523861
H        5.43548808       4.88314268       5.00237707      -0.36407001       0.45863719      -0.05428672       2.31435336      -4.74336892       0.00498350       1.25599151
3
Lattice="10.585882276618294 0.0 0.0 0.0 11.513900654527323 0.0 0.0 0.0 10.0" Properties=species:S:1:pos:R:3:momenta:R:3:forces:R:3:energies:R:1 energy=2.6708361643936867 stress="-0.0025064348970587186 0.0002245748175438742 7.794717078486018e-05 0.0002245748175438742 -0.007896890505080075 6.182300495013336e-05 7.794717078486018e-05 6.182300495013336e-05 -3.0251244904230855e-06" free_energy=2.6708361643936867 pbc="F F F"
O        5.01152853       5.75804787       5.00225410       0.39997257       0.42819186       0.11313609      -6.35013487       2.55022745       0.18017454       0.00200861
H        5.57803806       6.56770615       4.97712020      -0.31649341      -0.30461514      -0.05211163       3.09289582       4.48130195      -0.13775232       1.13286232
H        5.41150166       4.90520557       4.99695230      -0.08347916      -0.12357672      -0.06102446       3.25723905      -7.03152940      -0.04242222       1.53596523
3
Lattice="10.585882276618294 0.0 0.0 0.0 11.513900654527323 0.0 0.0 0.0 10.0" Properties=species:S:1:pos:R:3:momenta:R:3:forces:R:3:energies:R:1 energy=2.466124366212616 stress="-0.0022191667835487357 -0.0006714667955929047 0.00010636801753742722 -0.0006714667955929047 -0.006676683836581374 8.200768436430338e-05 0.00010636801753742722 8.200768436430338e-05 -5.481843554850659e-06" free_energy=2.466124366212616 pbc="F F F"
O        5.01198287       5.76161590       5.00282829      -0.21199564       0.51862740       0.12597865      -5.45095554      -0.28099190       0.25074116       0.07335877
H        5.56258459       6.56026331       4.97157257       0.01076934       0.17935837      -0.06237079       3.37248509       4.93388685      -0.19176812       1.27296397
H        5.41994193       4.85950515       4.99116731       0.20122630      -0.69798578      -0.06360786       2.07847045      -4.65289495      -0.05897304       1.11980162
3
Lattice="10.585882276618294 0.0 0.0 0.0 11.513900654527323 0.0 0.0 0.0 10.0" Properties=species:S:1:pos:R:3:momenta:R:3:forces:R:3:energies:R:1 energy=2.0039244699650665 stress="-0.0009315446316208318 -0.0009005507824244712 5.882407969820436e-05 -0.0009005507824244712 -0.002361932297667598 6.734301126408664e-05 5.882407969820436e-05 6.734301126408664e-05 -3.788143841464588e-06" free_energy=2.0039244699650665 pbc="F F F"
O        5.00901724       5.76468818       5.00349216      -0.57339767       0.44996910       0.10759785      -2.06846695      -1.74657568       0.12883939       0.42209273
H        5.57962610       6.60018913       4.96546590       0.26217771       0.52682651      -0.06035430       1.72411579       2.52179428      -0.11487876       0.96756319
H        5.44931066       4.76900146       4.98567331       0.31121996      -0.97679562      -0.04724355       0.34435117      -0.77521860      -0.01396063       0.61426855
3
Lattice="10.585882276618294 0.0 0.0 0.0 11.513900654527323 0.0 0.0 0.0 10.0" Properties=species:S:1:pos:R:3:momenta:R:3:forces:R:3:energies:R:1 energy=1.9812579221258098 stress="0.0003544231952922353 -0.0005642652712982121 -1.9512234433627627e-05 -0.0005642652712982121 0.0017157456450108835 2.6031771020079944e-05 -1.9512234433627627e-05 2.6031771020079944e-05 1.1052065795698508e-06" free_energy=1.9812579221258098 pbc="F F F"
O        5.00515339       5.76697300       5.00439823      -0.59230225       0.28725806       0.11152369       0.87258404      -1.51100886      -0.04728885       0.91429509
H        5.61305790       6.66352363       4.95945136       0.33458365       0.64317292      -0.05946867      -0.13506717      -0.21777406       0.01010088       0.63076427
H        5.47955616       4.67025485       4.98038305       0.25771860      -0.93043098      -0.05205502      -0.73751687       1.72878292       0.03718797       0.43619857
3
Lattice="10.585882276618294 0.0 0.0 0.0 11.513900654527323 0.0 0.0 0.0 10.0" Properties=species:S:1:pos:R:3:momenta:R:3:forces:R:3:energies:R:1 energy=2.302815449530924 stress="0.0011880129467071291 -0.00015302850021422165 -8.52953082143999e-05 -0.00015302850021422165 0.004329391201356247 -1.2135860104361953e-05 -8.52953082143999e-05 -1.2135860104361953e-05 6.247975454499494e-06" free_energy=2.302815449530924 pbc="F F F"
O        5.00174366       5.76827880       5.00510465      -0.47620459       0.19495467       0.11670172       2.51784902      -0.93716949      -0.17748493       1.36113435
H        5.64655474       6.72424185       4.95323472       0.29636433       0.51785854      -0.06440745      -1.30408820      -1.95170529       0.10500190       0.47226699
H        5.50193830       4.58750365       4.97518191       0.17984026      -0.71281321      -0.05229427      -1.21376082       2.88887478       0.07248304       0.46941411
3
Lattice="10.585882276618294 0.0 0.0 0.0 11.513900654527323 0.0 0.0 0.0 10.0" Properties=species:S:1:pos:R:3:momenta:R:3:forces:R:3:energies:R:1 energy=2.633341825871217 stress="0.0015927017487732751 0.00011280622765056877 -0.0001271719779021005 0.00011280622765056877 0.005636297230878931 -3.234271671980828e-05 -0.0001271719779021005 -3.234271671980828e-05 1.025101400961383e-05" free_energy=2.633341825871217 pbc="F F F"
O        4.99960278       5.76936454       5.00563050      -0.18746264       0.14010289       0.09332027       3.21807765      -0.57969830      -0.25360439       1.64883532
H        5.67015097       6.76466872       4.94815973       0.15125850       0.27586509      -0.04459205      -1.84537901      -2.75491488       0.15822766       0.43651782
H        5.51234877       4.53149649       4.96997232       0.03620414      -0.41596798      -0.04872821      -1.37269864       3.33461318       0.09537672       0.54798869
3
Lattice="10.585882276618294 0.0 0.0 0.0 11.513900654527323 0.0 0.0 0.0 10.0" Properties=species:S:1:pos:R:3:momenta:R:3:forces:R:3:energies:R:1 energy=2.7662390040969465 stress="0.0016860541496133488 0.00020692297409704395 -0.0001435371707928104 0.00020692297409704395 0.006033210446754862 -3.6509853686889204e-05 -0.0001435371707928104 -3.6509853686889204e-05 1.227902753060089e-05" free_energy=2.7662390040969465 pbc="F F F"
O        4.99911369       5.76979262       5.00591578       0.11990198       0.08300227       0.03466699       3.37544815      -0.47202616      -0.28457139       1.74444993
H        5.67613862       6.77846157       4.94536842      -0.03518838      -0.01000964      -0.00885449      -1.98737141      -2.97545856       0.17777943       0.43482299
H        5.51028404       4.50733202       4.96656645      -0.08471360      -0.07299264      -0.02581250      -1.38807674       3.44748472       0.10679195       0.58696609
3
Lattice="10.585882276618294 0.0 0.0 0.0 11.513900654527323 0.0 0.0 0.0 10.0" Properties=species:S:1:pos:R:3:momenta:R:3:forces:R:3:energies:R:1 energy=2.6414867023619855 stress="0.0015134165124412778 0.0001236878192934243 -0.00013258201454897556 0.0001236878192934243 0.005671529795107309 -2.0406883125217527e-05 -0.00013258201454897556 -2.0406883125217527e-05 1.1630955227104324e-05" free_energy=2.6414867023619855 pbc="F F F"
O        5.00080701       5.77025550       5.00590541       0.46542625       0.01931656      -0.01673617       3.11972288      -0.62498006      -0.27181394       1.64176858
H        5.66291870       6.76379732       4.94631327      -0.22859713      -0.28143598       0.02352128      -1.80754911      -2.72737701       0.16271053       0.43864710
H        5.49451085       4.51651988       4.96484255      -0.23682913       0.26211942      -0.00678511      -1.31217377       3.35235706       0.10910341       0.56107102
3
Lattice="10.585882276618294 0.0 0.0 0.0 11.513900654527323 0.0 0.0 0.0 10.0" Properties=species:S:1:pos:R:3:momenta:R:3:forces:R:3:energies:R:1 energy=2.32541632358556 stress="0.001041684645069622 -0.00017038452288132546 -9.320550059002402e-05 -0.00017038452288132546 0.004388299234772318 1.697353039842876e-05 -9.320550059002402e-05 1.697353039842876e-05 8.340315779854776e-06" free_energy=2.32541632358556 pbc="F F F"
O        5.00455710       5.77037444       5.00573427       0.71725095      -0.02182099      -0.03902921       2.31855694      -1.12790323      -0.20775132       1.34826962
H        5.63352923       6.72229010       4.94987459      -0.35099745      -0.52522843       0.04502703      -1.20340533      -1.83799397       0.10686908       0.48999059
H        5.46435719       4.55689530       4.96414216      -0.36625350       0.54704942      -0.00599782      -1.11515161       2.96589720       0.10088225       0.48715612
3
Lattice="10.585882276618294 0.0 0.0 0.0 11.513900654527323 0.0 0.0 0.0 10.0" Properties=species:S:1:pos:R:3:momenta:R:3:forces:R:3:energies:R:1 energy=2.028865964214012 stress="0.00020167978558326027 -0.0007218191515888844 -2.0899412580945914e-05 -0.0007218191515888844 0.0017836661808105986 7.264321389977599e-05 -2.0899412580945914e-05 7.264321389977599e-05 2.1599222687263576e-06" free_energy=2.028865964214012 pbc="F F F"
O        5.00965468       5.76998283       5.00574183       0.84752118      -0.14950837      -0.01913997       0.62641369      -2.08219325      -0.06448239       0.90262314
H        5.59388539       6.66128377       4.95324166      -0.39654384      -0.63252191       0.02244577       0.07947449       0.10415127      -0.00718784       0.69361329